<?xml version="1.0" encoding="UTF-8"?>

<!-- generated on 2025-04-29 17:04:13 by Eclipse SUMO GUI Version 1.22.0
<sumoConfiguration xmlns:xsi="http://www.w3.org/2001/XMLSchema-instance" xsi:noNamespaceSchemaLocation="http://sumo.dlr.de/xsd/sumoConfiguration.xsd">

    <input>
        <net-file value="osm.net.xml.gz"/>
        <route-files value="bsdroute.rou.xml"/>
        <additional-files value="osm.poly.xml.gz"/>
    </input>

    <output>
        <summary-output value="summary_q_offline.xml"/>
        <tripinfo-output value="tripinfo_q_offline.xml"/>
    </output>

    <processing>
        <ignore-route-errors value="true"/>
        <time-to-teleport value="-1"/>
        <waiting-time-memory value="1000"/>
        <tls.actuated.jam-threshold value="30"/>
    </processing>

    <routing>
        <device.rerouting.adaptation-steps value="18"/>
        <device.rerouting.adaptation-interval value="10"/>
    </routing>

    <report>
        <verbose value="true"/>
        <duration-log.statistics value="true"/>
        <no-step-log value="true"/>
    </report>

    <traci_server>
        <remote-port value="57686"/>
    </traci_server>

    <gui_only>
        <gui-settings-file value="osm.view.xml"/>
    </gui_only>

</sumoConfiguration>
-->

<tripinfos xmlns:xsi="http://www.w3.org/2001/XMLSchema-instance" xsi:noNamespaceSchemaLocation="http://sumo.dlr.de/xsd/tripinfo_file.xsd">
    <tripinfo id="flow_passenger_ns.0" depart="0.00" departLane="749313693_1" departPos="62.10" departSpeed="20.00" departDelay="0.00" arrival="12.00" arrivalLane="757092063_3" arrivalPos="47.17" arrivalSpeed="19.13" duration="12.00" routeLength="201.33" waitingTime="0.00" waitingCount="0" stopTime="0.00" timeLoss="1.19" rerouteNo="0" devices="tripinfo_flow_passenger_ns.0" vType="passenger" speedFactor="0.89" vaporized=""/>
    <tripinfo id="flow_emergency_ns.0" depart="0.00" departLane="749313693_0" departPos="7.10" departSpeed="31.19" departDelay="0.00" arrival="13.00" arrivalLane="757092063_2" arrivalPos="47.17" arrivalSpeed="22.49" duration="13.00" routeLength="256.33" waitingTime="0.00" waitingCount="0" stopTime="0.00" timeLoss="4.43" rerouteNo="0" devices="tripinfo_flow_emergency_ns.0" vType="emergency" speedFactor="1.12" vaporized=""/>
    <tripinfo id="flow_passenger_ns.1" depart="3.00" departLane="749313693_2" departPos="89.02" departSpeed="14.74" departDelay="0.00" arrival="13.00" arrivalLane="757092063_4" arrivalPos="47.17" arrivalSpeed="19.98" duration="10.00" routeLength="174.41" waitingTime="0.00" waitingCount="0" stopTime="0.00" timeLoss="1.27" rerouteNo="0" devices="tripinfo_flow_passenger_ns.1" vType="passenger" speedFactor="1.03" vaporized=""/>
    <tripinfo id="flow_passenger_nw.0" depart="0.00" departLane="749313693_2" departPos="72.43" departSpeed="20.00" departDelay="0.00" arrival="18.00" arrivalLane="978400303#1_3" arrivalPos="131.20" arrivalSpeed="19.63" duration="18.00" routeLength="254.66" waitingTime="0.00" waitingCount="0" stopTime="0.00" timeLoss="2.40" rerouteNo="0" devices="tripinfo_flow_passenger_nw.0" vType="passenger" speedFactor="0.83" vaporized=""/>
    <tripinfo id="flow_emergency_ne.0" depart="0.00" departLane="749313693_2" departPos="14.20" departSpeed="21.03" departDelay="0.00" arrival="19.00" arrivalLane="563175146#1_0" arrivalPos="228.90" arrivalSpeed="28.50" duration="19.00" routeLength="370.51" waitingTime="0.00" waitingCount="0" stopTime="0.00" timeLoss="4.33" rerouteNo="0" devices="tripinfo_flow_emergency_ne.0" vType="emergency" speedFactor="1.05" vaporized=""/>
    <tripinfo id="flow_emergency_nw.0" depart="1.00" departLane="749313693_1" departPos="7.23" departSpeed="19.15" departDelay="1.00" arrival="19.00" arrivalLane="978400303#1_3" arrivalPos="131.20" arrivalSpeed="24.18" duration="18.00" routeLength="319.86" waitingTime="0.00" waitingCount="0" stopTime="0.00" timeLoss="4.17" rerouteNo="0" devices="tripinfo_flow_emergency_nw.0" vType="emergency" speedFactor="0.99" vaporized=""/>
    <tripinfo id="flow_bus_ns.0" depart="0.00" departLane="749313693_0" departPos="0.00" departSpeed="0.00" departDelay="0.00" arrival="23.00" arrivalLane="757092063_2" arrivalPos="47.17" arrivalSpeed="15.89" duration="23.00" routeLength="263.43" waitingTime="0.00" waitingCount="0" stopTime="0.00" timeLoss="5.98" rerouteNo="0" devices="tripinfo_flow_bus_ns.0" vType="bus" speedFactor="1.08" vaporized=""/>
    <tripinfo id="flow_passenger_ne.0" depart="0.00" departLane="749313693_1" departPos="0.00" departSpeed="20.00" departDelay="0.00" arrival="24.00" arrivalLane="563175146#1_0" arrivalPos="228.90" arrivalSpeed="19.23" duration="24.00" routeLength="384.71" waitingTime="0.00" waitingCount="0" stopTime="0.00" timeLoss="3.53" rerouteNo="0" devices="tripinfo_flow_passenger_ne.0" vType="passenger" speedFactor="0.97" vaporized=""/>
    <tripinfo id="flow_truck_nw.0" depart="3.00" departLane="749313693_0" departPos="18.35" departSpeed="14.61" departDelay="3.00" arrival="24.00" arrivalLane="978400303#1_3" arrivalPos="131.20" arrivalSpeed="17.98" duration="21.00" routeLength="308.74" waitingTime="0.00" waitingCount="0" stopTime="0.00" timeLoss="2.04" rerouteNo="0" devices="tripinfo_flow_truck_nw.0" vType="truck" speedFactor="0.99" vaporized=""/>
    <tripinfo id="flow_passenger_ns.2" depart="6.00" departLane="749313693_2" departPos="0.00" departSpeed="5.12" departDelay="0.00" arrival="26.00" arrivalLane="757092063_4" arrivalPos="47.17" arrivalSpeed="19.60" duration="20.00" routeLength="263.43" waitingTime="0.00" waitingCount="0" stopTime="0.00" timeLoss="6.66" rerouteNo="0" devices="tripinfo_flow_passenger_ns.2" vType="passenger" speedFactor="1.00" vaporized=""/>
    <tripinfo id="flow_truck_ns.0" depart="3.00" departLane="749313693_0" departPos="0.00" departSpeed="0.48" departDelay="3.00" arrival="28.00" arrivalLane="757092063_2" arrivalPos="47.17" arrivalSpeed="17.60" duration="25.00" routeLength="263.43" waitingTime="0.00" waitingCount="0" stopTime="0.00" timeLoss="10.26" rerouteNo="0" devices="tripinfo_flow_truck_ns.0" vType="truck" speedFactor="1.17" vaporized=""/>
    <tripinfo id="flow_passenger_ns.3" depart="9.00" departLane="749313693_2" departPos="0.00" departSpeed="2.80" departDelay="0.00" arrival="28.00" arrivalLane="757092063_4" arrivalPos="47.17" arrivalSpeed="19.43" duration="19.00" routeLength="263.43" waitingTime="0.00" waitingCount="0" stopTime="0.00" timeLoss="5.28" rerouteNo="0" devices="tripinfo_flow_passenger_ns.3" vType="passenger" speedFactor="1.02" vaporized=""/>
    <tripinfo id="flow_passenger_ns.4" depart="12.00" departLane="749313693_1" departPos="0.00" departSpeed="13.03" departDelay="0.00" arrival="28.00" arrivalLane="757092063_3" arrivalPos="47.17" arrivalSpeed="19.39" duration="16.00" routeLength="263.43" waitingTime="0.00" waitingCount="0" stopTime="0.00" timeLoss="1.94" rerouteNo="0" devices="tripinfo_flow_passenger_ns.4" vType="passenger" speedFactor="0.97" vaporized=""/>
    <tripinfo id="flow_bus_nw.0" depart="0.00" departLane="749313693_2" departPos="7.10" departSpeed="0.00" departDelay="0.00" arrival="29.00" arrivalLane="978400303#1_3" arrivalPos="131.20" arrivalSpeed="15.13" duration="29.00" routeLength="319.99" waitingTime="0.00" waitingCount="0" stopTime="0.00" timeLoss="7.53" rerouteNo="0" devices="tripinfo_flow_bus_nw.0" vType="bus" speedFactor="1.03" vaporized=""/>
    <tripinfo id="flow_passenger_nw.1" depart="7.00" departLane="749313693_2" departPos="20.96" departSpeed="7.96" departDelay="0.00" arrival="30.00" arrivalLane="978400303#1_3" arrivalPos="131.20" arrivalSpeed="18.92" duration="23.00" routeLength="306.13" waitingTime="0.00" waitingCount="0" stopTime="0.00" timeLoss="5.50" rerouteNo="0" devices="tripinfo_flow_passenger_nw.1" vType="passenger" speedFactor="0.88" vaporized=""/>
    <tripinfo id="flow_passenger_ns.5" depart="15.00" departLane="749313693_1" departPos="0.00" departSpeed="15.67" departDelay="0.00" arrival="31.00" arrivalLane="757092063_3" arrivalPos="47.17" arrivalSpeed="19.83" duration="16.00" routeLength="263.43" waitingTime="0.00" waitingCount="0" stopTime="0.00" timeLoss="1.95" rerouteNo="0" devices="tripinfo_flow_passenger_ns.5" vType="passenger" speedFactor="0.94" vaporized=""/>
    <tripinfo id="flow_bus_ne.0" depart="0.00" departLane="749313693_2" departPos="0.00" departSpeed="0.00" departDelay="0.00" arrival="34.00" arrivalLane="563175146#1_0" arrivalPos="228.90" arrivalSpeed="15.44" duration="34.00" routeLength="384.71" waitingTime="1.00" waitingCount="1" stopTime="0.00" timeLoss="8.95" rerouteNo="0" devices="tripinfo_flow_bus_ne.0" vType="bus" speedFactor="1.01" vaporized=""/>
    <tripinfo id="flow_emergency_sw.0" depart="0.00" departLane="1053267667#3_0" departPos="22.88" departSpeed="22.73" departDelay="0.00" arrival="35.00" arrivalLane="978400303#1_0" arrivalPos="131.20" arrivalSpeed="25.91" duration="35.00" routeLength="254.38" waitingTime="19.00" waitingCount="1" stopTime="0.00" timeLoss="24.72" rerouteNo="0" devices="tripinfo_flow_emergency_sw.0" vType="emergency" speedFactor="0.94" vaporized=""/>
    <tripinfo id="flow_passenger_ne.2" depart="10.00" departLane="749313693_2" departPos="28.06" departSpeed="9.37" departDelay="0.00" arrival="35.00" arrivalLane="563175146#1_0" arrivalPos="228.90" arrivalSpeed="17.28" duration="25.00" routeLength="356.65" waitingTime="0.00" waitingCount="0" stopTime="0.00" timeLoss="6.19" rerouteNo="0" devices="tripinfo_flow_passenger_ne.2" vType="passenger" speedFactor="1.00" vaporized=""/>
    <tripinfo id="flow_passenger_nw.2" depart="14.00" departLane="749313693_2" departPos="0.00" departSpeed="14.22" departDelay="0.00" arrival="35.00" arrivalLane="978400303#1_3" arrivalPos="131.20" arrivalSpeed="19.81" duration="21.00" routeLength="327.09" waitingTime="0.00" waitingCount="0" stopTime="0.00" timeLoss="2.69" rerouteNo="0" devices="tripinfo_flow_passenger_nw.2" vType="passenger" speedFactor="1.12" vaporized=""/>
    <tripinfo id="flow_emergency_sn.0" depart="0.00" departLane="1053267667#3_2" departPos="0.00" departSpeed="24.40" departDelay="0.00" arrival="38.00" arrivalLane="749988360#2_2" arrivalPos="63.94" arrivalSpeed="24.23" duration="38.00" routeLength="243.13" waitingTime="21.00" waitingCount="1" stopTime="0.00" timeLoss="27.32" rerouteNo="0" devices="tripinfo_flow_emergency_sn.0" vType="emergency" speedFactor="0.88" vaporized=""/>
    <tripinfo id="flow_truck_ne.0" depart="1.00" departLane="749313693_2" departPos="0.00" departSpeed="1.78" departDelay="1.00" arrival="38.00" arrivalLane="563175146#1_0" arrivalPos="228.90" arrivalSpeed="16.88" duration="37.00" routeLength="384.71" waitingTime="0.00" waitingCount="0" stopTime="0.00" timeLoss="14.73" rerouteNo="0" devices="tripinfo_flow_truck_ne.0" vType="truck" speedFactor="1.01" vaporized=""/>
    <tripinfo id="flow_passenger_ne.1" depart="5.00" departLane="749313693_2" departPos="0.00" departSpeed="3.24" departDelay="0.00" arrival="40.00" arrivalLane="563175146#1_0" arrivalPos="228.90" arrivalSpeed="19.29" duration="35.00" routeLength="384.71" waitingTime="1.00" waitingCount="1" stopTime="0.00" timeLoss="14.01" rerouteNo="0" devices="tripinfo_flow_passenger_ne.1" vType="passenger" speedFactor="1.04" vaporized=""/>
    <tripinfo id="flow_passenger_sn.0" depart="2.00" departLane="1053267667#3_1" departPos="27.55" departSpeed="13.14" departDelay="2.00" arrival="42.00" arrivalLane="749988360#2_0" arrivalPos="63.94" arrivalSpeed="18.78" duration="40.00" routeLength="215.58" waitingTime="15.00" waitingCount="1" stopTime="0.00" timeLoss="28.85" rerouteNo="0" devices="tripinfo_flow_passenger_sn.0" vType="passenger" speedFactor="0.92" vaporized=""/>
    <tripinfo id="flow_passenger_sn.11" depart="33.00" departLane="1053267667#3_1" departPos="69.74" departSpeed="20.00" departDelay="0.00" arrival="43.00" arrivalLane="749988360#2_1" arrivalPos="63.94" arrivalSpeed="19.58" duration="10.00" routeLength="173.39" waitingTime="0.00" waitingCount="0" stopTime="0.00" timeLoss="0.46" rerouteNo="0" devices="tripinfo_flow_passenger_sn.11" vType="passenger" speedFactor="0.96" vaporized=""/>
    <tripinfo id="flow_truck_sw.0" depart="0.00" departLane="1053267667#3_2" departPos="81.21" departSpeed="0.00" departDelay="0.00" arrival="44.00" arrivalLane="978400303#1_0" arrivalPos="131.20" arrivalSpeed="16.79" duration="44.00" routeLength="196.05" waitingTime="24.00" waitingCount="1" stopTime="0.00" timeLoss="32.52" rerouteNo="0" devices="tripinfo_flow_truck_sw.0" vType="truck" speedFactor="1.18" vaporized=""/>
    <tripinfo id="flow_passenger_sw.0" depart="0.00" departLane="1053267667#3_2" departPos="74.11" departSpeed="0.00" departDelay="0.00" arrival="48.00" arrivalLane="978400303#1_0" arrivalPos="131.20" arrivalSpeed="19.88" duration="48.00" routeLength="203.15" waitingTime="27.00" waitingCount="4" stopTime="0.00" timeLoss="37.29" rerouteNo="0" devices="tripinfo_flow_passenger_sw.0" vType="passenger" speedFactor="0.95" vaporized=""/>
    <tripinfo id="flow_emergency_en.0" depart="0.00" departLane="749662140#0_3" departPos="0.00" departSpeed="18.66" departDelay="0.00" arrival="49.00" arrivalLane="749988360#2_2" arrivalPos="63.94" arrivalSpeed="29.24" duration="49.00" routeLength="198.44" waitingTime="32.00" waitingCount="1" stopTime="0.00" timeLoss="41.06" rerouteNo="0" devices="tripinfo_flow_emergency_en.0" vType="emergency" speedFactor="1.09" vaporized=""/>
    <tripinfo id="flow_bus_sw.0" depart="0.00" departLane="1053267667#3_1" departPos="14.20" departSpeed="0.00" departDelay="0.00" arrival="52.00" arrivalLane="978400303#1_0" arrivalPos="131.20" arrivalSpeed="15.49" duration="52.00" routeLength="263.06" waitingTime="12.00" waitingCount="1" stopTime="0.00" timeLoss="35.34" rerouteNo="0" devices="tripinfo_flow_bus_sw.0" vType="bus" speedFactor="0.89" vaporized=""/>
    <tripinfo id="flow_truck_se.0" depart="0.00" departLane="1053267667#3_1" departPos="21.30" departSpeed="18.00" departDelay="0.00" arrival="53.00" arrivalLane="563175146#1_2" arrivalPos="228.90" arrivalSpeed="17.56" duration="53.00" routeLength="341.39" waitingTime="24.00" waitingCount="1" stopTime="0.00" timeLoss="32.49" rerouteNo="0" devices="tripinfo_flow_truck_se.0" vType="truck" speedFactor="1.02" vaporized=""/>
    <tripinfo id="flow_passenger_en.0" depart="0.00" departLane="749662140#0_2" departPos="7.10" departSpeed="15.38" departDelay="0.00" arrival="54.00" arrivalLane="749988360#2_2" arrivalPos="63.94" arrivalSpeed="19.32" duration="54.00" routeLength="191.34" waitingTime="34.00" waitingCount="1" stopTime="0.00" timeLoss="43.52" rerouteNo="0" devices="tripinfo_flow_passenger_en.0" vType="passenger" speedFactor="1.02" vaporized=""/>
    <tripinfo id="flow_passenger_ns.9" depart="27.00" departLane="749313693_0" departPos="38.94" departSpeed="7.00" departDelay="0.00" arrival="57.00" arrivalLane="757092063_2" arrivalPos="47.17" arrivalSpeed="19.85" duration="30.00" routeLength="224.49" waitingTime="7.00" waitingCount="1" stopTime="0.00" timeLoss="18.40" rerouteNo="0" devices="tripinfo_flow_passenger_ns.9" vType="passenger" speedFactor="0.83" vaporized=""/>
    <tripinfo id="flow_passenger_ns.6" depart="18.00" departLane="749313693_1" departPos="0.00" departSpeed="15.42" departDelay="0.00" arrival="58.00" arrivalLane="757092063_3" arrivalPos="47.17" arrivalSpeed="18.83" duration="40.00" routeLength="263.43" waitingTime="22.00" waitingCount="1" stopTime="0.00" timeLoss="26.59" rerouteNo="0" devices="tripinfo_flow_passenger_ns.6" vType="passenger" speedFactor="1.02" vaporized=""/>
    <tripinfo id="flow_passenger_ne.3" depart="15.00" departLane="749313693_2" departPos="0.00" departSpeed="10.91" departDelay="0.00" arrival="59.00" arrivalLane="563175146#1_0" arrivalPos="228.90" arrivalSpeed="19.62" duration="44.00" routeLength="384.71" waitingTime="14.00" waitingCount="1" stopTime="0.00" timeLoss="23.25" rerouteNo="0" devices="tripinfo_flow_passenger_ne.3" vType="passenger" speedFactor="0.99" vaporized=""/>
    <tripinfo id="flow_passenger_ns.7" depart="21.00" departLane="749313693_2" departPos="9.83" departSpeed="20.00" departDelay="0.00" arrival="59.00" arrivalLane="757092063_4" arrivalPos="47.17" arrivalSpeed="19.96" duration="38.00" routeLength="253.60" waitingTime="13.00" waitingCount="2" stopTime="0.00" timeLoss="24.38" rerouteNo="0" devices="tripinfo_flow_passenger_ns.7" vType="passenger" speedFactor="1.01" vaporized=""/>
    <tripinfo id="flow_passenger_ne.4" depart="20.00" departLane="749313693_0" departPos="0.00" departSpeed="11.39" departDelay="0.00" arrival="60.00" arrivalLane="563175146#1_0" arrivalPos="228.90" arrivalSpeed="19.60" duration="40.00" routeLength="384.71" waitingTime="10.00" waitingCount="1" stopTime="0.00" timeLoss="19.90" rerouteNo="0" devices="tripinfo_flow_passenger_ne.4" vType="passenger" speedFactor="1.03" vaporized=""/>
    <tripinfo id="flow_passenger_ns.8" depart="24.00" departLane="749313693_1" departPos="0.00" departSpeed="20.00" departDelay="0.00" arrival="60.00" arrivalLane="757092063_3" arrivalPos="47.17" arrivalSpeed="19.07" duration="36.00" routeLength="263.43" waitingTime="11.00" waitingCount="2" stopTime="0.00" timeLoss="22.29" rerouteNo="0" devices="tripinfo_flow_passenger_ns.8" vType="passenger" speedFactor="0.98" vaporized=""/>
    <tripinfo id="flow_passenger_nw.3" depart="21.00" departLane="749313693_0" departPos="0.00" departSpeed="11.04" departDelay="0.00" arrival="64.00" arrivalLane="978400303#1_3" arrivalPos="131.20" arrivalSpeed="19.17" duration="43.00" routeLength="327.09" waitingTime="11.00" waitingCount="1" stopTime="0.00" timeLoss="25.05" rerouteNo="0" devices="tripinfo_flow_passenger_nw.3" vType="passenger" speedFactor="1.09" vaporized=""/>
    <tripinfo id="flow_bus_ns.1" depart="20.00" departLane="749313693_2" departPos="0.00" departSpeed="0.00" departDelay="0.00" arrival="65.00" arrivalLane="757092063_3" arrivalPos="47.17" arrivalSpeed="14.93" duration="45.00" routeLength="263.43" waitingTime="7.00" waitingCount="1" stopTime="0.00" timeLoss="27.75" rerouteNo="0" devices="tripinfo_flow_bus_ns.1" vType="bus" speedFactor="1.06" vaporized=""/>
    <tripinfo id="flow_passenger_ne.5" depart="25.00" departLane="749313693_2" departPos="0.00" departSpeed="8.01" departDelay="0.00" arrival="65.00" arrivalLane="563175146#1_0" arrivalPos="228.90" arrivalSpeed="19.93" duration="40.00" routeLength="384.71" waitingTime="6.00" waitingCount="1" stopTime="0.00" timeLoss="19.24" rerouteNo="0" devices="tripinfo_flow_passenger_ne.5" vType="passenger" speedFactor="1.02" vaporized=""/>
    <tripinfo id="flow_passenger_sn.3" depart="9.00" departLane="1053267667#3_0" departPos="0.00" departSpeed="2.50" departDelay="0.00" arrival="66.00" arrivalLane="749988360#2_0" arrivalPos="63.94" arrivalSpeed="18.81" duration="57.00" routeLength="243.13" waitingTime="22.00" waitingCount="2" stopTime="0.00" timeLoss="44.43" rerouteNo="0" devices="tripinfo_flow_passenger_sn.3" vType="passenger" speedFactor="1.10" vaporized=""/>
    <tripinfo id="flow_passenger_sn.1" depart="3.00" departLane="1053267667#3_2" departPos="18.63" departSpeed="13.58" departDelay="0.00" arrival="67.00" arrivalLane="749988360#2_1" arrivalPos="63.94" arrivalSpeed="19.16" duration="64.00" routeLength="224.50" waitingTime="36.00" waitingCount="3" stopTime="0.00" timeLoss="52.09" rerouteNo="0" devices="tripinfo_flow_passenger_sn.1" vType="passenger" speedFactor="0.96" vaporized=""/>
    <tripinfo id="flow_passenger_ne.6" depart="30.00" departLane="749313693_1" departPos="0.00" departSpeed="10.64" departDelay="0.00" arrival="67.00" arrivalLane="563175146#1_0" arrivalPos="228.90" arrivalSpeed="19.38" duration="37.00" routeLength="384.71" waitingTime="4.00" waitingCount="1" stopTime="0.00" timeLoss="16.50" rerouteNo="0" devices="tripinfo_flow_passenger_ne.6" vType="passenger" speedFactor="0.97" vaporized=""/>
    <tripinfo id="flow_passenger_sw.1" depart="9.00" departLane="1053267667#3_2" departPos="0.00" departSpeed="2.50" departDelay="0.00" arrival="68.00" arrivalLane="978400303#1_0" arrivalPos="131.20" arrivalSpeed="19.73" duration="59.00" routeLength="277.26" waitingTime="21.00" waitingCount="2" stopTime="0.00" timeLoss="44.64" rerouteNo="0" devices="tripinfo_flow_passenger_sw.1" vType="passenger" speedFactor="1.00" vaporized=""/>
    <tripinfo id="flow_passenger_sn.4" depart="12.00" departLane="1053267667#3_0" departPos="0.00" departSpeed="2.50" departDelay="0.00" arrival="68.00" arrivalLane="749988360#2_0" arrivalPos="63.94" arrivalSpeed="19.99" duration="56.00" routeLength="243.13" waitingTime="20.00" waitingCount="2" stopTime="0.00" timeLoss="43.64" rerouteNo="0" devices="tripinfo_flow_passenger_sn.4" vType="passenger" speedFactor="1.08" vaporized=""/>
    <tripinfo id="flow_passenger_sn.7" depart="22.00" departLane="1053267667#3_0" departPos="23.11" departSpeed="0.06" departDelay="1.00" arrival="70.00" arrivalLane="749988360#2_0" arrivalPos="63.94" arrivalSpeed="19.14" duration="48.00" routeLength="220.02" waitingTime="13.00" waitingCount="2" stopTime="0.00" timeLoss="36.44" rerouteNo="0" devices="tripinfo_flow_passenger_sn.7" vType="passenger" speedFactor="1.00" vaporized=""/>
    <tripinfo id="flow_truck_sn.0" depart="2.00" departLane="1053267667#3_0" departPos="0.00" departSpeed="10.33" departDelay="2.00" arrival="71.00" arrivalLane="749988360#2_1" arrivalPos="63.94" arrivalSpeed="17.04" duration="69.00" routeLength="243.13" waitingTime="31.00" waitingCount="2" stopTime="0.00" timeLoss="55.24" rerouteNo="0" devices="tripinfo_flow_truck_sn.0" vType="truck" speedFactor="0.97" vaporized=""/>
    <tripinfo id="flow_bus_ne.1" depart="25.00" departLane="749313693_0" departPos="0.00" departSpeed="0.00" departDelay="0.00" arrival="72.00" arrivalLane="563175146#1_0" arrivalPos="228.90" arrivalSpeed="15.20" duration="47.00" routeLength="384.71" waitingTime="0.00" waitingCount="0" stopTime="0.00" timeLoss="21.61" rerouteNo="0" devices="tripinfo_flow_bus_ne.1" vType="bus" speedFactor="1.01" vaporized=""/>
    <tripinfo id="flow_passenger_sn.2" depart="6.00" departLane="1053267667#3_1" departPos="0.00" departSpeed="2.50" departDelay="0.00" arrival="73.00" arrivalLane="749988360#2_1" arrivalPos="63.94" arrivalSpeed="19.70" duration="67.00" routeLength="243.13" waitingTime="30.00" waitingCount="2" stopTime="0.00" timeLoss="54.08" rerouteNo="0" devices="tripinfo_flow_passenger_sn.2" vType="passenger" speedFactor="0.90" vaporized=""/>
    <tripinfo id="flow_passenger_sw.3" depart="27.00" departLane="1053267667#3_0" departPos="30.65" departSpeed="0.42" departDelay="0.00" arrival="73.00" arrivalLane="978400303#1_0" arrivalPos="131.20" arrivalSpeed="19.81" duration="46.00" routeLength="246.61" waitingTime="11.00" waitingCount="2" stopTime="0.00" timeLoss="33.28" rerouteNo="0" devices="tripinfo_flow_passenger_sw.3" vType="passenger" speedFactor="1.09" vaporized=""/>
    <tripinfo id="flow_passenger_sn.5" depart="16.00" departLane="1053267667#3_2" departPos="14.11" departSpeed="0.14" departDelay="1.00" arrival="74.00" arrivalLane="749988360#2_1" arrivalPos="63.94" arrivalSpeed="19.35" duration="58.00" routeLength="229.02" waitingTime="23.00" waitingCount="2" stopTime="0.00" timeLoss="46.29" rerouteNo="0" devices="tripinfo_flow_passenger_sn.5" vType="passenger" speedFactor="0.88" vaporized=""/>
    <tripinfo id="flow_passenger_sw.2" depart="18.00" departLane="1053267667#3_2" departPos="0.00" departSpeed="1.51" departDelay="0.00" arrival="75.00" arrivalLane="978400303#1_0" arrivalPos="131.20" arrivalSpeed="19.99" duration="57.00" routeLength="277.26" waitingTime="12.00" waitingCount="4" stopTime="0.00" timeLoss="42.48" rerouteNo="0" devices="tripinfo_flow_passenger_sw.2" vType="passenger" speedFactor="0.94" vaporized=""/>
    <tripinfo id="flow_passenger_sn.9" depart="27.00" departLane="1053267667#3_0" departPos="0.00" departSpeed="3.34" departDelay="0.00" arrival="75.00" arrivalLane="749988360#2_0" arrivalPos="63.94" arrivalSpeed="19.89" duration="48.00" routeLength="243.13" waitingTime="8.00" waitingCount="2" stopTime="0.00" timeLoss="35.54" rerouteNo="0" devices="tripinfo_flow_passenger_sn.9" vType="passenger" speedFactor="0.92" vaporized=""/>
    <tripinfo id="flow_passenger_sn.6" depart="18.00" departLane="1053267667#3_1" departPos="0.00" departSpeed="2.50" departDelay="0.00" arrival="76.00" arrivalLane="749988360#2_1" arrivalPos="63.94" arrivalSpeed="19.75" duration="58.00" routeLength="243.13" waitingTime="20.00" waitingCount="2" stopTime="0.00" timeLoss="45.06" rerouteNo="0" devices="tripinfo_flow_passenger_sn.6" vType="passenger" speedFactor="0.97" vaporized=""/>
    <tripinfo id="flow_bus_sn.0" depart="0.00" departLane="1053267667#3_1" departPos="7.10" departSpeed="0.00" departDelay="0.00" arrival="77.00" arrivalLane="749988360#2_2" arrivalPos="63.94" arrivalSpeed="15.66" duration="77.00" routeLength="236.03" waitingTime="36.00" waitingCount="5" stopTime="0.00" timeLoss="61.58" rerouteNo="0" devices="tripinfo_flow_bus_sn.0" vType="bus" speedFactor="1.05" vaporized=""/>
    <tripinfo id="flow_bus_se.1" depart="30.00" departLane="1053267667#3_1" departPos="69.64" departSpeed="0.00" departDelay="0.00" arrival="80.00" arrivalLane="563175146#1_2" arrivalPos="228.90" arrivalSpeed="15.88" duration="50.00" routeLength="293.05" waitingTime="16.00" waitingCount="2" stopTime="0.00" timeLoss="31.37" rerouteNo="0" devices="tripinfo_flow_bus_se.1" vType="bus" speedFactor="1.06" vaporized=""/>
    <tripinfo id="flow_emergency_se.0" depart="0.00" departLane="1053267667#3_0" departPos="0.00" departSpeed="10.64" departDelay="0.00" arrival="82.00" arrivalLane="563175146#1_2" arrivalPos="228.90" arrivalSpeed="22.74" duration="82.00" routeLength="362.69" waitingTime="39.00" waitingCount="3" stopTime="0.00" timeLoss="65.33" rerouteNo="0" devices="tripinfo_flow_emergency_se.0" vType="emergency" speedFactor="0.93" vaporized=""/>
    <tripinfo id="flow_passenger_se.1" depart="7.00" departLane="1053267667#3_2" departPos="46.33" departSpeed="4.42" departDelay="0.00" arrival="83.00" arrivalLane="563175146#1_2" arrivalPos="228.90" arrivalSpeed="19.95" duration="76.00" routeLength="316.36" waitingTime="37.00" waitingCount="3" stopTime="0.00" timeLoss="58.28" rerouteNo="0" devices="tripinfo_flow_passenger_se.1" vType="passenger" speedFactor="0.85" vaporized=""/>
    <tripinfo id="flow_passenger_nw.4" depart="28.00" departLane="749313693_2" departPos="0.00" departSpeed="4.65" departDelay="0.00" arrival="83.00" arrivalLane="978400303#1_3" arrivalPos="131.20" arrivalSpeed="18.87" duration="55.00" routeLength="327.09" waitingTime="17.00" waitingCount="2" stopTime="0.00" timeLoss="36.32" rerouteNo="0" devices="tripinfo_flow_passenger_nw.4" vType="passenger" speedFactor="0.91" vaporized=""/>
    <tripinfo id="flow_bus_en.0" depart="0.00" departLane="749662140#0_2" departPos="0.00" departSpeed="0.00" departDelay="0.00" arrival="85.00" arrivalLane="749988360#2_2" arrivalPos="63.94" arrivalSpeed="15.74" duration="85.00" routeLength="198.44" waitingTime="47.00" waitingCount="2" stopTime="0.00" timeLoss="72.28" rerouteNo="0" devices="tripinfo_flow_bus_en.0" vType="bus" speedFactor="1.06" vaporized=""/>
    <tripinfo id="flow_passenger_ns.10" depart="30.00" departLane="749313693_0" departPos="0.00" departSpeed="2.60" departDelay="0.00" arrival="87.00" arrivalLane="757092063_3" arrivalPos="47.17" arrivalSpeed="19.21" duration="57.00" routeLength="263.43" waitingTime="19.00" waitingCount="3" stopTime="0.00" timeLoss="43.50" rerouteNo="0" devices="tripinfo_flow_passenger_ns.10" vType="passenger" speedFactor="0.95" vaporized=""/>
    <tripinfo id="flow_passenger_ns.16" depart="48.00" departLane="749313693_0" departPos="0.00" departSpeed="5.86" departDelay="0.00" arrival="87.00" arrivalLane="757092063_2" arrivalPos="47.17" arrivalSpeed="19.73" duration="39.00" routeLength="263.43" waitingTime="11.00" waitingCount="1" stopTime="0.00" timeLoss="25.02" rerouteNo="0" devices="tripinfo_flow_passenger_ns.16" vType="passenger" speedFactor="1.13" vaporized=""/>
    <tripinfo id="flow_passenger_ns.11" depart="33.00" departLane="749313693_2" departPos="18.08" departSpeed="14.07" departDelay="0.00" arrival="88.00" arrivalLane="757092063_4" arrivalPos="47.17" arrivalSpeed="19.07" duration="55.00" routeLength="245.35" waitingTime="22.00" waitingCount="3" stopTime="0.00" timeLoss="41.79" rerouteNo="0" devices="tripinfo_flow_passenger_ns.11" vType="passenger" speedFactor="1.06" vaporized=""/>
    <tripinfo id="flow_passenger_ne.8" depart="40.00" departLane="749313693_1" departPos="40.47" departSpeed="2.62" departDelay="0.00" arrival="88.00" arrivalLane="563175146#1_0" arrivalPos="228.90" arrivalSpeed="19.12" duration="48.00" routeLength="344.24" waitingTime="11.00" waitingCount="1" stopTime="0.00" timeLoss="29.70" rerouteNo="0" devices="tripinfo_flow_passenger_ne.8" vType="passenger" speedFactor="1.03" vaporized=""/>
    <tripinfo id="flow_passenger_ne.7" depart="35.00" departLane="749313693_2" departPos="0.00" departSpeed="2.50" departDelay="0.00" arrival="90.00" arrivalLane="563175146#1_0" arrivalPos="228.90" arrivalSpeed="19.25" duration="55.00" routeLength="384.71" waitingTime="13.00" waitingCount="1" stopTime="0.00" timeLoss="34.04" rerouteNo="0" devices="tripinfo_flow_passenger_ne.7" vType="passenger" speedFactor="0.87" vaporized=""/>
    <tripinfo id="flow_passenger_ns.12" depart="37.00" departLane="749313693_1" departPos="0.00" departSpeed="2.50" departDelay="1.00" arrival="90.00" arrivalLane="757092063_3" arrivalPos="47.17" arrivalSpeed="19.85" duration="53.00" routeLength="263.43" waitingTime="17.00" waitingCount="2" stopTime="0.00" timeLoss="38.97" rerouteNo="0" devices="tripinfo_flow_passenger_ns.12" vType="passenger" speedFactor="1.00" vaporized=""/>